+ 1 /NodeList/0/DeviceList/0/$ns3::PointToPointNetDevice/TxQueue/Enqueue ns3::PppHeader (Point-to-Point Protocol: IP (0x0021)) ns3::Ipv4Header (tos 0x0 DSCP Default ECN Not-ECT ttl 64 id 0 protocol 6 offset (bytes) 0 flags [none] length: 56 10.1.0.1 > 10.1.0.7) ns3::TcpHeader (49153 > 9 [SYN] Seq=0 Ack=0 Win=65535 ns3::TcpOptionTS(1000;0) ns3::TcpOptionWinScale(2) ns3::TcpOptionSackPermitted([sack_perm]) ns3::TcpOptionEnd(EOL))
- 1 /NodeList/0/DeviceList/0/$ns3::PointToPointNetDevice/TxQueue/Dequeue ns3::PppHeader (Point-to-Point Protocol: IP (0x0021)) ns3::Ipv4Header (tos 0x0 DSCP Default ECN Not-ECT ttl 64 id 0 protocol 6 offset (bytes) 0 flags [none] length: 56 10.1.0.1 > 10.1.0.7) ns3::TcpHeader (49153 > 9 [SYN] Seq=0 Ack=0 Win=65535 ns3::TcpOptionTS(1000;0) ns3::TcpOptionWinScale(2) ns3::TcpOptionSackPermitted([sack_perm]) ns3::TcpOptionEnd(EOL))
r 1.00209 /NodeList/1/DeviceList/0/$ns3::PointToPointNetDevice/MacRx ns3::PppHeader (Point-to-Point Protocol: IP (0x0021)) ns3::Ipv4Header (tos 0x0 DSCP Default ECN Not-ECT ttl 64 id 0 protocol 6 offset (bytes) 0 flags [none] length: 56 10.1.0.1 > 10.1.0.7) ns3::TcpHeader (49153 > 9 [SYN] Seq=0 Ack=0 Win=65535 ns3::TcpOptionTS(1000;0) ns3::TcpOptionWinScale(2) ns3::TcpOptionSackPermitted([sack_perm]) ns3::TcpOptionEnd(EOL))
+ 1.00209 /NodeList/1/DeviceList/1/$ns3::PointToPointNetDevice/TxQueue/Enqueue ns3::PppHeader (Point-to-Point Protocol: IP (0x0021)) ns3::Ipv4Header (tos 0x0 DSCP Default ECN Not-ECT ttl 63 id 0 protocol 6 offset (bytes) 0 flags [none] length: 56 10.1.0.1 > 10.1.0.7) ns3::TcpHeader (49153 > 9 [SYN] Seq=0 Ack=0 Win=65535 ns3::TcpOptionTS(1000;0) ns3::TcpOptionWinScale(2) ns3::TcpOptionSackPermitted([sack_perm]) ns3::TcpOptionEnd(EOL))
- 1.00209 /NodeList/1/DeviceList/1/$ns3::PointToPointNetDevice/TxQueue/Dequeue ns3::PppHeader (Point-to-Point Protocol: IP (0x0021)) ns3::Ipv4Header (tos 0x0 DSCP Default ECN Not-ECT ttl 63 id 0 protocol 6 offset (bytes) 0 flags [none] length: 56 10.1.0.1 > 10.1.0.7) ns3::TcpHeader (49153 > 9 [SYN] Seq=0 Ack=0 Win=65535 ns3::TcpOptionTS(1000;0) ns3::TcpOptionWinScale(2) ns3::TcpOptionSackPermitted([sack_perm]) ns3::TcpOptionEnd(EOL))
r 1.00419 /NodeList/3/DeviceList/0/$ns3::PointToPointNetDevice/MacRx ns3::PppHeader (Point-to-Point Protocol: IP (0x0021)) ns3::Ipv4Header (tos 0x0 DSCP Default ECN Not-ECT ttl 63 id 0 protocol 6 offset (bytes) 0 flags [none] length: 56 10.1.0.1 > 10.1.0.7) ns3::TcpHeader (49153 > 9 [SYN] Seq=0 Ack=0 Win=65535 ns3::TcpOptionTS(1000;0) ns3::TcpOptionWinScale(2) ns3::TcpOptionSackPermitted([sack_perm]) ns3::TcpOptionEnd(EOL))
+ 1.00419 /NodeList/3/DeviceList/0/$ns3::PointToPointNetDevice/TxQueue/Enqueue ns3::PppHeader (Point-to-Point Protocol: IP (0x0021)) ns3::Ipv4Header (tos 0x0 DSCP Default ECN Not-ECT ttl 64 id 0 protocol 6 offset (bytes) 0 flags [none] length: 56 10.1.0.7 > 10.1.0.1) ns3::TcpHeader (9 > 49153 [SYN|ACK] Seq=0 Ack=1 Win=65535 ns3::TcpOptionTS(1004;1000) ns3::TcpOptionWinScale(2) ns3::TcpOptionSackPermitted([sack_perm]) ns3::TcpOptionEnd(EOL))
- 1.00419 /NodeList/3/DeviceList/0/$ns3::PointToPointNetDevice/TxQueue/Dequeue ns3::PppHeader (Point-to-Point Protocol: IP (0x0021)) ns3::Ipv4Header (tos 0x0 DSCP Default ECN Not-ECT ttl 64 id 0 protocol 6 offset (bytes) 0 flags [none] length: 56 10.1.0.7 > 10.1.0.1) ns3::TcpHeader (9 > 49153 [SYN|ACK] Seq=0 Ack=1 Win=65535 ns3::TcpOptionTS(1004;1000) ns3::TcpOptionWinScale(2) ns3::TcpOptionSackPermitted([sack_perm]) ns3::TcpOptionEnd(EOL))
r 1.00628 /NodeList/1/DeviceList/1/$ns3::PointToPointNetDevice/MacRx ns3::PppHeader (Point-to-Point Protocol: IP (0x0021)) ns3::Ipv4Header (tos 0x0 DSCP Default ECN Not-ECT ttl 64 id 0 protocol 6 offset (bytes) 0 flags [none] length: 56 10.1.0.7 > 10.1.0.1) ns3::TcpHeader (9 > 49153 [SYN|ACK] Seq=0 Ack=1 Win=65535 ns3::TcpOptionTS(1004;1000) ns3::TcpOptionWinScale(2) ns3::TcpOptionSackPermitted([sack_perm]) ns3::TcpOptionEnd(EOL))
+ 1.00628 /NodeList/1/DeviceList/0/$ns3::PointToPointNetDevice/TxQueue/Enqueue ns3::PppHeader (Point-to-Point Protocol: IP (0x0021)) ns3::Ipv4Header (tos 0x0 DSCP Default ECN Not-ECT ttl 63 id 0 protocol 6 offset (bytes) 0 flags [none] length: 56 10.1.0.7 > 10.1.0.1) ns3::TcpHeader (9 > 49153 [SYN|ACK] Seq=0 Ack=1 Win=65535 ns3::TcpOptionTS(1004;1000) ns3::TcpOptionWinScale(2) ns3::TcpOptionSackPermitted([sack_perm]) ns3::TcpOptionEnd(EOL))
- 1.00628 /NodeList/1/DeviceList/0/$ns3::PointToPointNetDevice/TxQueue/Dequeue ns3::PppHeader (Point-to-Point Protocol: IP (0x0021)) ns3::Ipv4Header (tos 0x0 DSCP Default ECN Not-ECT ttl 63 id 0 protocol 6 offset (bytes) 0 flags [none] length: 56 10.1.0.7 > 10.1.0.1) ns3::TcpHeader (9 > 49153 [SYN|ACK] Seq=0 Ack=1 Win=65535 ns3::TcpOptionTS(1004;1000) ns3::TcpOptionWinScale(2) ns3::TcpOptionSackPermitted([sack_perm]) ns3::TcpOptionEnd(EOL))
r 1.00837 /NodeList/0/DeviceList/0/$ns3::PointToPointNetDevice/MacRx ns3::PppHeader (Point-to-Point Protocol: IP (0x0021)) ns3::Ipv4Header (tos 0x0 DSCP Default ECN Not-ECT ttl 63 id 0 protocol 6 offset (bytes) 0 flags [none] length: 56 10.1.0.7 > 10.1.0.1) ns3::TcpHeader (9 > 49153 [SYN|ACK] Seq=0 Ack=1 Win=65535 ns3::TcpOptionTS(1004;1000) ns3::TcpOptionWinScale(2) ns3::TcpOptionSackPermitted([sack_perm]) ns3::TcpOptionEnd(EOL))
+ 1.00837 /NodeList/0/DeviceList/0/$ns3::PointToPointNetDevice/TxQueue/Enqueue ns3::PppHeader (Point-to-Point Protocol: IP (0x0021)) ns3::Ipv4Header (tos 0x0 DSCP Default ECN Not-ECT ttl 64 id 1 protocol 6 offset (bytes) 0 flags [none] length: 52 10.1.0.1 > 10.1.0.7) ns3::TcpHeader (49153 > 9 [ACK] Seq=1 Ack=1 Win=32768 ns3::TcpOptionTS(1008;1004) ns3::TcpOptionEnd(EOL))
- 1.00837 /NodeList/0/DeviceList/0/$ns3::PointToPointNetDevice/TxQueue/Dequeue ns3::PppHeader (Point-to-Point Protocol: IP (0x0021)) ns3::Ipv4Header (tos 0x0 DSCP Default ECN Not-ECT ttl 64 id 1 protocol 6 offset (bytes) 0 flags [none] length: 52 10.1.0.1 > 10.1.0.7) ns3::TcpHeader (49153 > 9 [ACK] Seq=1 Ack=1 Win=32768 ns3::TcpOptionTS(1008;1004) ns3::TcpOptionEnd(EOL))
r 1.01046 /NodeList/1/DeviceList/0/$ns3::PointToPointNetDevice/MacRx ns3::PppHeader (Point-to-Point Protocol: IP (0x0021)) ns3::Ipv4Header (tos 0x0 DSCP Default ECN Not-ECT ttl 64 id 1 protocol 6 offset (bytes) 0 flags [none] length: 52 10.1.0.1 > 10.1.0.7) ns3::TcpHeader (49153 > 9 [ACK] Seq=1 Ack=1 Win=32768 ns3::TcpOptionTS(1008;1004) ns3::TcpOptionEnd(EOL))
+ 1.01046 /NodeList/1/DeviceList/1/$ns3::PointToPointNetDevice/TxQueue/Enqueue ns3::PppHeader (Point-to-Point Protocol: IP (0x0021)) ns3::Ipv4Header (tos 0x0 DSCP Default ECN Not-ECT ttl 63 id 1 protocol 6 offset (bytes) 0 flags [none] length: 52 10.1.0.1 > 10.1.0.7) ns3::TcpHeader (49153 > 9 [ACK] Seq=1 Ack=1 Win=32768 ns3::TcpOptionTS(1008;1004) ns3::TcpOptionEnd(EOL))
- 1.01046 /NodeList/1/DeviceList/1/$ns3::PointToPointNetDevice/TxQueue/Dequeue ns3::PppHeader (Point-to-Point Protocol: IP (0x0021)) ns3::Ipv4Header (tos 0x0 DSCP Default ECN Not-ECT ttl 63 id 1 protocol 6 offset (bytes) 0 flags [none] length: 52 10.1.0.1 > 10.1.0.7) ns3::TcpHeader (49153 > 9 [ACK] Seq=1 Ack=1 Win=32768 ns3::TcpOptionTS(1008;1004) ns3::TcpOptionEnd(EOL))
r 1.01254 /NodeList/3/DeviceList/0/$ns3::PointToPointNetDevice/MacRx ns3::PppHeader (Point-to-Point Protocol: IP (0x0021)) ns3::Ipv4Header (tos 0x0 DSCP Default ECN Not-ECT ttl 63 id 1 protocol 6 offset (bytes) 0 flags [none] length: 52 10.1.0.1 > 10.1.0.7) ns3::TcpHeader (49153 > 9 [ACK] Seq=1 Ack=1 Win=32768 ns3::TcpOptionTS(1008;1004) ns3::TcpOptionEnd(EOL))
+ 1.80819 /NodeList/0/DeviceList/0/$ns3::PointToPointNetDevice/TxQueue/Enqueue ns3::PppHeader (Point-to-Point Protocol: IP (0x0021)) ns3::Ipv4Header (tos 0x0 DSCP Default ECN Not-ECT ttl 64 id 2 protocol 6 offset (bytes) 0 flags [none] length: 564 10.1.0.1 > 10.1.0.7) ns3::TcpHeader (49153 > 9 [ACK] Seq=1 Ack=1 Win=32768 ns3::TcpOptionTS(1808;1004) ns3::TcpOptionEnd(EOL)) Payload (size=512)
- 1.80819 /NodeList/0/DeviceList/0/$ns3::PointToPointNetDevice/TxQueue/Dequeue ns3::PppHeader (Point-to-Point Protocol: IP (0x0021)) ns3::Ipv4Header (tos 0x0 DSCP Default ECN Not-ECT ttl 64 id 2 protocol 6 offset (bytes) 0 flags [none] length: 564 10.1.0.1 > 10.1.0.7) ns3::TcpHeader (49153 > 9 [ACK] Seq=1 Ack=1 Win=32768 ns3::TcpOptionTS(1808;1004) ns3::TcpOptionEnd(EOL)) Payload (size=512)
r 1.8111 /NodeList/1/DeviceList/0/$ns3::PointToPointNetDevice/MacRx ns3::PppHeader (Point-to-Point Protocol: IP (0x0021)) ns3::Ipv4Header (tos 0x0 DSCP Default ECN Not-ECT ttl 64 id 2 protocol 6 offset (bytes) 0 flags [none] length: 564 10.1.0.1 > 10.1.0.7) ns3::TcpHeader (49153 > 9 [ACK] Seq=1 Ack=1 Win=32768 ns3::TcpOptionTS(1808;1004) ns3::TcpOptionEnd(EOL)) Payload (size=512)
+ 1.8111 /NodeList/1/DeviceList/1/$ns3::PointToPointNetDevice/TxQueue/Enqueue ns3::PppHeader (Point-to-Point Protocol: IP (0x0021)) ns3::Ipv4Header (tos 0x0 DSCP Default ECN Not-ECT ttl 63 id 2 protocol 6 offset (bytes) 0 flags [none] length: 564 10.1.0.1 > 10.1.0.7) ns3::TcpHeader (49153 > 9 [ACK] Seq=1 Ack=1 Win=32768 ns3::TcpOptionTS(1808;1004) ns3::TcpOptionEnd(EOL)) Payload (size=512)
- 1.8111 /NodeList/1/DeviceList/1/$ns3::PointToPointNetDevice/TxQueue/Dequeue ns3::PppHeader (Point-to-Point Protocol: IP (0x0021)) ns3::Ipv4Header (tos 0x0 DSCP Default ECN Not-ECT ttl 63 id 2 protocol 6 offset (bytes) 0 flags [none] length: 564 10.1.0.1 > 10.1.0.7) ns3::TcpHeader (49153 > 9 [ACK] Seq=1 Ack=1 Win=32768 ns3::TcpOptionTS(1808;1004) ns3::TcpOptionEnd(EOL)) Payload (size=512)
r 1.814 /NodeList/3/DeviceList/0/$ns3::PointToPointNetDevice/MacRx ns3::PppHeader (Point-to-Point Protocol: IP (0x0021)) ns3::Ipv4Header (tos 0x0 DSCP Default ECN Not-ECT ttl 63 id 2 protocol 6 offset (bytes) 0 flags [none] length: 564 10.1.0.1 > 10.1.0.7) ns3::TcpHeader (49153 > 9 [ACK] Seq=1 Ack=1 Win=32768 ns3::TcpOptionTS(1808;1004) ns3::TcpOptionEnd(EOL)) Payload (size=512)
+ 1.814 /NodeList/3/DeviceList/0/$ns3::PointToPointNetDevice/TxQueue/Enqueue ns3::PppHeader (Point-to-Point Protocol: IP (0x0021)) ns3::Ipv4Header (tos 0x0 DSCP Default ECN Not-ECT ttl 64 id 1 protocol 6 offset (bytes) 0 flags [none] length: 52 10.1.0.7 > 10.1.0.1) ns3::TcpHeader (9 > 49153 [ACK] Seq=1 Ack=513 Win=32768 ns3::TcpOptionTS(1814;1808) ns3::TcpOptionEnd(EOL))
- 1.814 /NodeList/3/DeviceList/0/$ns3::PointToPointNetDevice/TxQueue/Dequeue ns3::PppHeader (Point-to-Point Protocol: IP (0x0021)) ns3::Ipv4Header (tos 0x0 DSCP Default ECN Not-ECT ttl 64 id 1 protocol 6 offset (bytes) 0 flags [none] length: 52 10.1.0.7 > 10.1.0.1) ns3::TcpHeader (9 > 49153 [ACK] Seq=1 Ack=513 Win=32768 ns3::TcpOptionTS(1814;1808) ns3::TcpOptionEnd(EOL))
r 1.81609 /NodeList/1/DeviceList/1/$ns3::PointToPointNetDevice/MacRx ns3::PppHeader (Point-to-Point Protocol: IP (0x0021)) ns3::Ipv4Header (tos 0x0 DSCP Default ECN Not-ECT ttl 64 id 1 protocol 6 offset (bytes) 0 flags [none] length: 52 10.1.0.7 > 10.1.0.1) ns3::TcpHeader (9 > 49153 [ACK] Seq=1 Ack=513 Win=32768 ns3::TcpOptionTS(1814;1808) ns3::TcpOptionEnd(EOL))
+ 1.81609 /NodeList/1/DeviceList/0/$ns3::PointToPointNetDevice/TxQueue/Enqueue ns3::PppHeader (Point-to-Point Protocol: IP (0x0021)) ns3::Ipv4Header (tos 0x0 DSCP Default ECN Not-ECT ttl 63 id 1 protocol 6 offset (bytes) 0 flags [none] length: 52 10.1.0.7 > 10.1.0.1) ns3::TcpHeader (9 > 49153 [ACK] Seq=1 Ack=513 Win=32768 ns3::TcpOptionTS(1814;1808) ns3::TcpOptionEnd(EOL))
- 1.81609 /NodeList/1/DeviceList/0/$ns3::PointToPointNetDevice/TxQueue/Dequeue ns3::PppHeader (Point-to-Point Protocol: IP (0x0021)) ns3::Ipv4Header (tos 0x0 DSCP Default ECN Not-ECT ttl 63 id 1 protocol 6 offset (bytes) 0 flags [none] length: 52 10.1.0.7 > 10.1.0.1) ns3::TcpHeader (9 > 49153 [ACK] Seq=1 Ack=513 Win=32768 ns3::TcpOptionTS(1814;1808) ns3::TcpOptionEnd(EOL))
+ 1.81638 /NodeList/0/DeviceList/0/$ns3::PointToPointNetDevice/TxQueue/Enqueue ns3::PppHeader (Point-to-Point Protocol: IP (0x0021)) ns3::Ipv4Header (tos 0x0 DSCP Default ECN Not-ECT ttl 64 id 3 protocol 6 offset (bytes) 0 flags [none] length: 564 10.1.0.1 > 10.1.0.7) ns3::TcpHeader (49153 > 9 [ACK] Seq=513 Ack=1 Win=32768 ns3::TcpOptionTS(1816;1004) ns3::TcpOptionEnd(EOL)) Payload (size=512)
- 1.81638 /NodeList/0/DeviceList/0/$ns3::PointToPointNetDevice/TxQueue/Dequeue ns3::PppHeader (Point-to-Point Protocol: IP (0x0021)) ns3::Ipv4Header (tos 0x0 DSCP Default ECN Not-ECT ttl 64 id 3 protocol 6 offset (bytes) 0 flags [none] length: 564 10.1.0.1 > 10.1.0.7) ns3::TcpHeader (49153 > 9 [ACK] Seq=513 Ack=1 Win=32768 ns3::TcpOptionTS(1816;1004) ns3::TcpOptionEnd(EOL)) Payload (size=512)
r 1.81818 /NodeList/0/DeviceList/0/$ns3::PointToPointNetDevice/MacRx ns3::PppHeader (Point-to-Point Protocol: IP (0x0021)) ns3::Ipv4Header (tos 0x0 DSCP Default ECN Not-ECT ttl 63 id 1 protocol 6 offset (bytes) 0 flags [none] length: 52 10.1.0.7 > 10.1.0.1) ns3::TcpHeader (9 > 49153 [ACK] Seq=1 Ack=513 Win=32768 ns3::TcpOptionTS(1814;1808) ns3::TcpOptionEnd(EOL))
r 1.81929 /NodeList/1/DeviceList/0/$ns3::PointToPointNetDevice/MacRx ns3::PppHeader (Point-to-Point Protocol: IP (0x0021)) ns3::Ipv4Header (tos 0x0 DSCP Default ECN Not-ECT ttl 64 id 3 protocol 6 offset (bytes) 0 flags [none] length: 564 10.1.0.1 > 10.1.0.7) ns3::TcpHeader (49153 > 9 [ACK] Seq=513 Ack=1 Win=32768 ns3::TcpOptionTS(1816;1004) ns3::TcpOptionEnd(EOL)) Payload (size=512)
+ 1.81929 /NodeList/1/DeviceList/1/$ns3::PointToPointNetDevice/TxQueue/Enqueue ns3::PppHeader (Point-to-Point Protocol: IP (0x0021)) ns3::Ipv4Header (tos 0x0 DSCP Default ECN Not-ECT ttl 63 id 3 protocol 6 offset (bytes) 0 flags [none] length: 564 10.1.0.1 > 10.1.0.7) ns3::TcpHeader (49153 > 9 [ACK] Seq=513 Ack=1 Win=32768 ns3::TcpOptionTS(1816;1004) ns3::TcpOptionEnd(EOL)) Payload (size=512)
- 1.81929 /NodeList/1/DeviceList/1/$ns3::PointToPointNetDevice/TxQueue/Dequeue ns3::PppHeader (Point-to-Point Protocol: IP (0x0021)) ns3::Ipv4Header (tos 0x0 DSCP Default ECN Not-ECT ttl 63 id 3 protocol 6 offset (bytes) 0 flags [none] length: 564 10.1.0.1 > 10.1.0.7) ns3::TcpHeader (49153 > 9 [ACK] Seq=513 Ack=1 Win=32768 ns3::TcpOptionTS(1816;1004) ns3::TcpOptionEnd(EOL)) Payload (size=512)
r 1.8222 /NodeList/3/DeviceList/0/$ns3::PointToPointNetDevice/MacRx ns3::PppHeader (Point-to-Point Protocol: IP (0x0021)) ns3::Ipv4Header (tos 0x0 DSCP Default ECN Not-ECT ttl 63 id 3 protocol 6 offset (bytes) 0 flags [none] length: 564 10.1.0.1 > 10.1.0.7) ns3::TcpHeader (49153 > 9 [ACK] Seq=513 Ack=1 Win=32768 ns3::TcpOptionTS(1816;1004) ns3::TcpOptionEnd(EOL)) Payload (size=512)
+ 1.82458 /NodeList/0/DeviceList/0/$ns3::PointToPointNetDevice/TxQueue/Enqueue ns3::PppHeader (Point-to-Point Protocol: IP (0x0021)) ns3::Ipv4Header (tos 0x0 DSCP Default ECN Not-ECT ttl 64 id 4 protocol 6 offset (bytes) 0 flags [none] length: 564 10.1.0.1 > 10.1.0.7) ns3::TcpHeader (49153 > 9 [ACK] Seq=1025 Ack=1 Win=32768 ns3::TcpOptionTS(1824;1814) ns3::TcpOptionEnd(EOL)) Payload (size=512)
- 1.82458 /NodeList/0/DeviceList/0/$ns3::PointToPointNetDevice/TxQueue/Dequeue ns3::PppHeader (Point-to-Point Protocol: IP (0x0021)) ns3::Ipv4Header (tos 0x0 DSCP Default ECN Not-ECT ttl 64 id 4 protocol 6 offset (bytes) 0 flags [none] length: 564 10.1.0.1 > 10.1.0.7) ns3::TcpHeader (49153 > 9 [ACK] Seq=1025 Ack=1 Win=32768 ns3::TcpOptionTS(1824;1814) ns3::TcpOptionEnd(EOL)) Payload (size=512)
r 1.82748 /NodeList/1/DeviceList/0/$ns3::PointToPointNetDevice/MacRx ns3::PppHeader (Point-to-Point Protocol: IP (0x0021)) ns3::Ipv4Header (tos 0x0 DSCP Default ECN Not-ECT ttl 64 id 4 protocol 6 offset (bytes) 0 flags [none] length: 564 10.1.0.1 > 10.1.0.7) ns3::TcpHeader (49153 > 9 [ACK] Seq=1025 Ack=1 Win=32768 ns3::TcpOptionTS(1824;1814) ns3::TcpOptionEnd(EOL)) Payload (size=512)
+ 1.82748 /NodeList/1/DeviceList/1/$ns3::PointToPointNetDevice/TxQueue/Enqueue ns3::PppHeader (Point-to-Point Protocol: IP (0x0021)) ns3::Ipv4Header (tos 0x0 DSCP Default ECN Not-ECT ttl 63 id 4 protocol 6 offset (bytes) 0 flags [none] length: 564 10.1.0.1 > 10.1.0.7) ns3::TcpHeader (49153 > 9 [ACK] Seq=1025 Ack=1 Win=32768 ns3::TcpOptionTS(1824;1814) ns3::TcpOptionEnd(EOL)) Payload (size=512)
- 1.82748 /NodeList/1/DeviceList/1/$ns3::PointToPointNetDevice/TxQueue/Dequeue ns3::PppHeader (Point-to-Point Protocol: IP (0x0021)) ns3::Ipv4Header (tos 0x0 DSCP Default ECN Not-ECT ttl 63 id 4 protocol 6 offset (bytes) 0 flags [none] length: 564 10.1.0.1 > 10.1.0.7) ns3::TcpHeader (49153 > 9 [ACK] Seq=1025 Ack=1 Win=32768 ns3::TcpOptionTS(1824;1814) ns3::TcpOptionEnd(EOL)) Payload (size=512)
r 1.83039 /NodeList/3/DeviceList/0/$ns3::PointToPointNetDevice/MacRx ns3::PppHeader (Point-to-Point Protocol: IP (0x0021)) ns3::Ipv4Header (tos 0x0 DSCP Default ECN Not-ECT ttl 63 id 4 protocol 6 offset (bytes) 0 flags [none] length: 564 10.1.0.1 > 10.1.0.7) ns3::TcpHeader (49153 > 9 [ACK] Seq=1025 Ack=1 Win=32768 ns3::TcpOptionTS(1824;1814) ns3::TcpOptionEnd(EOL)) Payload (size=512)
+ 1.83039 /NodeList/3/DeviceList/0/$ns3::PointToPointNetDevice/TxQueue/Enqueue ns3::PppHeader (Point-to-Point Protocol: IP (0x0021)) ns3::Ipv4Header (tos 0x0 DSCP Default ECN Not-ECT ttl 64 id 2 protocol 6 offset (bytes) 0 flags [none] length: 52 10.1.0.7 > 10.1.0.1) ns3::TcpHeader (9 > 49153 [ACK] Seq=1 Ack=1537 Win=32768 ns3::TcpOptionTS(1830;1816) ns3::TcpOptionEnd(EOL))
- 1.83039 /NodeList/3/DeviceList/0/$ns3::PointToPointNetDevice/TxQueue/Dequeue ns3::PppHeader (Point-to-Point Protocol: IP (0x0021)) ns3::Ipv4Header (tos 0x0 DSCP Default ECN Not-ECT ttl 64 id 2 protocol 6 offset (bytes) 0 flags [none] length: 52 10.1.0.7 > 10.1.0.1) ns3::TcpHeader (9 > 49153 [ACK] Seq=1 Ack=1537 Win=32768 ns3::TcpOptionTS(1830;1816) ns3::TcpOptionEnd(EOL))
r 1.83247 /NodeList/1/DeviceList/1/$ns3::PointToPointNetDevice/MacRx ns3::PppHeader (Point-to-Point Protocol: IP (0x0021)) ns3::Ipv4Header (tos 0x0 DSCP Default ECN Not-ECT ttl 64 id 2 protocol 6 offset (bytes) 0 flags [none] length: 52 10.1.0.7 > 10.1.0.1) ns3::TcpHeader (9 > 49153 [ACK] Seq=1 Ack=1537 Win=32768 ns3::TcpOptionTS(1830;1816) ns3::TcpOptionEnd(EOL))
+ 1.83247 /NodeList/1/DeviceList/0/$ns3::PointToPointNetDevice/TxQueue/Enqueue ns3::PppHeader (Point-to-Point Protocol: IP (0x0021)) ns3::Ipv4Header (tos 0x0 DSCP Default ECN Not-ECT ttl 63 id 2 protocol 6 offset (bytes) 0 flags [none] length: 52 10.1.0.7 > 10.1.0.1) ns3::TcpHeader (9 > 49153 [ACK] Seq=1 Ack=1537 Win=32768 ns3::TcpOptionTS(1830;1816) ns3::TcpOptionEnd(EOL))
- 1.83247 /NodeList/1/DeviceList/0/$ns3::PointToPointNetDevice/TxQueue/Dequeue ns3::PppHeader (Point-to-Point Protocol: IP (0x0021)) ns3::Ipv4Header (tos 0x0 DSCP Default ECN Not-ECT ttl 63 id 2 protocol 6 offset (bytes) 0 flags [none] length: 52 10.1.0.7 > 10.1.0.1) ns3::TcpHeader (9 > 49153 [ACK] Seq=1 Ack=1537 Win=32768 ns3::TcpOptionTS(1830;1816) ns3::TcpOptionEnd(EOL))
+ 1.83277 /NodeList/0/DeviceList/0/$ns3::PointToPointNetDevice/TxQueue/Enqueue ns3::PppHeader (Point-to-Point Protocol: IP (0x0021)) ns3::Ipv4Header (tos 0x0 DSCP Default ECN Not-ECT ttl 64 id 5 protocol 6 offset (bytes) 0 flags [none] length: 564 10.1.0.1 > 10.1.0.7) ns3::TcpHeader (49153 > 9 [ACK] Seq=1537 Ack=1 Win=32768 ns3::TcpOptionTS(1832;1814) ns3::TcpOptionEnd(EOL)) Payload (size=512)
- 1.83277 /NodeList/0/DeviceList/0/$ns3::PointToPointNetDevice/TxQueue/Dequeue ns3::PppHeader (Point-to-Point Protocol: IP (0x0021)) ns3::Ipv4Header (tos 0x0 DSCP Default ECN Not-ECT ttl 64 id 5 protocol 6 offset (bytes) 0 flags [none] length: 564 10.1.0.1 > 10.1.0.7) ns3::TcpHeader (49153 > 9 [ACK] Seq=1537 Ack=1 Win=32768 ns3::TcpOptionTS(1832;1814) ns3::TcpOptionEnd(EOL)) Payload (size=512)
r 1.83456 /NodeList/0/DeviceList/0/$ns3::PointToPointNetDevice/MacRx ns3::PppHeader (Point-to-Point Protocol: IP (0x0021)) ns3::Ipv4Header (tos 0x0 DSCP Default ECN Not-ECT ttl 63 id 2 protocol 6 offset (bytes) 0 flags [none] length: 52 10.1.0.7 > 10.1.0.1) ns3::TcpHeader (9 > 49153 [ACK] Seq=1 Ack=1537 Win=32768 ns3::TcpOptionTS(1830;1816) ns3::TcpOptionEnd(EOL))
r 1.83567 /NodeList/1/DeviceList/0/$ns3::PointToPointNetDevice/MacRx ns3::PppHeader (Point-to-Point Protocol: IP (0x0021)) ns3::Ipv4Header (tos 0x0 DSCP Default ECN Not-ECT ttl 64 id 5 protocol 6 offset (bytes) 0 flags [none] length: 564 10.1.0.1 > 10.1.0.7) ns3::TcpHeader (49153 > 9 [ACK] Seq=1537 Ack=1 Win=32768 ns3::TcpOptionTS(1832;1814) ns3::TcpOptionEnd(EOL)) Payload (size=512)
+ 1.83567 /NodeList/1/DeviceList/1/$ns3::PointToPointNetDevice/TxQueue/Enqueue ns3::PppHeader (Point-to-Point Protocol: IP (0x0021)) ns3::Ipv4Header (tos 0x0 DSCP Default ECN Not-ECT ttl 63 id 5 protocol 6 offset (bytes) 0 flags [none] length: 564 10.1.0.1 > 10.1.0.7) ns3::TcpHeader (49153 > 9 [ACK] Seq=1537 Ack=1 Win=32768 ns3::TcpOptionTS(1832;1814) ns3::TcpOptionEnd(EOL)) Payload (size=512)
- 1.83567 /NodeList/1/DeviceList/1/$ns3::PointToPointNetDevice/TxQueue/Dequeue ns3::PppHeader (Point-to-Point Protocol: IP (0x0021)) ns3::Ipv4Header (tos 0x0 DSCP Default ECN Not-ECT ttl 63 id 5 protocol 6 offset (bytes) 0 flags [none] length: 564 10.1.0.1 > 10.1.0.7) ns3::TcpHeader (49153 > 9 [ACK] Seq=1537 Ack=1 Win=32768 ns3::TcpOptionTS(1832;1814) ns3::TcpOptionEnd(EOL)) Payload (size=512)
r 1.83858 /NodeList/3/DeviceList/0/$ns3::PointToPointNetDevice/MacRx ns3::PppHeader (Point-to-Point Protocol: IP (0x0021)) ns3::Ipv4Header (tos 0x0 DSCP Default ECN Not-ECT ttl 63 id 5 protocol 6 offset (bytes) 0 flags [none] length: 564 10.1.0.1 > 10.1.0.7) ns3::TcpHeader (49153 > 9 [ACK] Seq=1537 Ack=1 Win=32768 ns3::TcpOptionTS(1832;1814) ns3::TcpOptionEnd(EOL)) Payload (size=512)
+ 1.84096 /NodeList/0/DeviceList/0/$ns3::PointToPointNetDevice/TxQueue/Enqueue ns3::PppHeader (Point-to-Point Protocol: IP (0x0021)) ns3::Ipv4Header (tos 0x0 DSCP Default ECN Not-ECT ttl 64 id 6 protocol 6 offset (bytes) 0 flags [none] length: 564 10.1.0.1 > 10.1.0.7) ns3::TcpHeader (49153 > 9 [ACK] Seq=2049 Ack=1 Win=32768 ns3::TcpOptionTS(1840;1830) ns3::TcpOptionEnd(EOL)) Payload (size=512)
- 1.84096 /NodeList/0/DeviceList/0/$ns3::PointToPointNetDevice/TxQueue/Dequeue ns3::PppHeader (Point-to-Point Protocol: IP (0x0021)) ns3::Ipv4Header (tos 0x0 DSCP Default ECN Not-ECT ttl 64 id 6 protocol 6 offset (bytes) 0 flags [none] length: 564 10.1.0.1 > 10.1.0.7) ns3::TcpHeader (49153 > 9 [ACK] Seq=2049 Ack=1 Win=32768 ns3::TcpOptionTS(1840;1830) ns3::TcpOptionEnd(EOL)) Payload (size=512)
r 1.84387 /NodeList/1/DeviceList/0/$ns3::PointToPointNetDevice/MacRx ns3::PppHeader (Point-to-Point Protocol: IP (0x0021)) ns3::Ipv4Header (tos 0x0 DSCP Default ECN Not-ECT ttl 64 id 6 protocol 6 offset (bytes) 0 flags [none] length: 564 10.1.0.1 > 10.1.0.7) ns3::TcpHeader (49153 > 9 [ACK] Seq=2049 Ack=1 Win=32768 ns3::TcpOptionTS(1840;1830) ns3::TcpOptionEnd(EOL)) Payload (size=512)
+ 1.84387 /NodeList/1/DeviceList/1/$ns3::PointToPointNetDevice/TxQueue/Enqueue ns3::PppHeader (Point-to-Point Protocol: IP (0x0021)) ns3::Ipv4Header (tos 0x0 DSCP Default ECN Not-ECT ttl 63 id 6 protocol 6 offset (bytes) 0 flags [none] length: 564 10.1.0.1 > 10.1.0.7) ns3::TcpHeader (49153 > 9 [ACK] Seq=2049 Ack=1 Win=32768 ns3::TcpOptionTS(1840;1830) ns3::TcpOptionEnd(EOL)) Payload (size=512)
- 1.84387 /NodeList/1/DeviceList/1/$ns3::PointToPointNetDevice/TxQueue/Dequeue ns3::PppHeader (Point-to-Point Protocol: IP (0x0021)) ns3::Ipv4Header (tos 0x0 DSCP Default ECN Not-ECT ttl 63 id 6 protocol 6 offset (bytes) 0 flags [none] length: 564 10.1.0.1 > 10.1.0.7) ns3::TcpHeader (49153 > 9 [ACK] Seq=2049 Ack=1 Win=32768 ns3::TcpOptionTS(1840;1830) ns3::TcpOptionEnd(EOL)) Payload (size=512)
r 1.84677 /NodeList/3/DeviceList/0/$ns3::PointToPointNetDevice/MacRx ns3::PppHeader (Point-to-Point Protocol: IP (0x0021)) ns3::Ipv4Header (tos 0x0 DSCP Default ECN Not-ECT ttl 63 id 6 protocol 6 offset (bytes) 0 flags [none] length: 564 10.1.0.1 > 10.1.0.7) ns3::TcpHeader (49153 > 9 [ACK] Seq=2049 Ack=1 Win=32768 ns3::TcpOptionTS(1840;1830) ns3::TcpOptionEnd(EOL)) Payload (size=512)
+ 1.84677 /NodeList/3/DeviceList/0/$ns3::PointToPointNetDevice/TxQueue/Enqueue ns3::PppHeader (Point-to-Point Protocol: IP (0x0021)) ns3::Ipv4Header (tos 0x0 DSCP Default ECN Not-ECT ttl 64 id 3 protocol 6 offset (bytes) 0 flags [none] length: 52 10.1.0.7 > 10.1.0.1) ns3::TcpHeader (9 > 49153 [ACK] Seq=1 Ack=2561 Win=32768 ns3::TcpOptionTS(1846;1832) ns3::TcpOptionEnd(EOL))
- 1.84677 /NodeList/3/DeviceList/0/$ns3::PointToPointNetDevice/TxQueue/Dequeue ns3::PppHeader (Point-to-Point Protocol: IP (0x0021)) ns3::Ipv4Header (tos 0x0 DSCP Default ECN Not-ECT ttl 64 id 3 protocol 6 offset (bytes) 0 flags [none] length: 52 10.1.0.7 > 10.1.0.1) ns3::TcpHeader (9 > 49153 [ACK] Seq=1 Ack=2561 Win=32768 ns3::TcpOptionTS(1846;1832) ns3::TcpOptionEnd(EOL))
r 1.84886 /NodeList/1/DeviceList/1/$ns3::PointToPointNetDevice/MacRx ns3::PppHeader (Point-to-Point Protocol: IP (0x0021)) ns3::Ipv4Header (tos 0x0 DSCP Default ECN Not-ECT ttl 64 id 3 protocol 6 offset (bytes) 0 flags [none] length: 52 10.1.0.7 > 10.1.0.1) ns3::TcpHeader (9 > 49153 [ACK] Seq=1 Ack=2561 Win=32768 ns3::TcpOptionTS(1846;1832) ns3::TcpOptionEnd(EOL))
+ 1.84886 /NodeList/1/DeviceList/0/$ns3::PointToPointNetDevice/TxQueue/Enqueue ns3::PppHeader (Point-to-Point Protocol: IP (0x0021)) ns3::Ipv4Header (tos 0x0 DSCP Default ECN Not-ECT ttl 63 id 3 protocol 6 offset (bytes) 0 flags [none] length: 52 10.1.0.7 > 10.1.0.1) ns3::TcpHeader (9 > 49153 [ACK] Seq=1 Ack=2561 Win=32768 ns3::TcpOptionTS(1846;1832) ns3::TcpOptionEnd(EOL))
- 1.84886 /NodeList/1/DeviceList/0/$ns3::PointToPointNetDevice/TxQueue/Dequeue ns3::PppHeader (Point-to-Point Protocol: IP (0x0021)) ns3::Ipv4Header (tos 0x0 DSCP Default ECN Not-ECT ttl 63 id 3 protocol 6 offset (bytes) 0 flags [none] length: 52 10.1.0.7 > 10.1.0.1) ns3::TcpHeader (9 > 49153 [ACK] Seq=1 Ack=2561 Win=32768 ns3::TcpOptionTS(1846;1832) ns3::TcpOptionEnd(EOL))
+ 1.84915 /NodeList/0/DeviceList/0/$ns3::PointToPointNetDevice/TxQueue/Enqueue ns3::PppHeader (Point-to-Point Protocol: IP (0x0021)) ns3::Ipv4Header (tos 0x0 DSCP Default ECN Not-ECT ttl 64 id 7 protocol 6 offset (bytes) 0 flags [none] length: 564 10.1.0.1 > 10.1.0.7) ns3::TcpHeader (49153 > 9 [ACK] Seq=2561 Ack=1 Win=32768 ns3::TcpOptionTS(1849;1830) ns3::TcpOptionEnd(EOL)) Payload (size=512)
- 1.84915 /NodeList/0/DeviceList/0/$ns3::PointToPointNetDevice/TxQueue/Dequeue ns3::PppHeader (Point-to-Point Protocol: IP (0x0021)) ns3::Ipv4Header (tos 0x0 DSCP Default ECN Not-ECT ttl 64 id 7 protocol 6 offset (bytes) 0 flags [none] length: 564 10.1.0.1 > 10.1.0.7) ns3::TcpHeader (49153 > 9 [ACK] Seq=2561 Ack=1 Win=32768 ns3::TcpOptionTS(1849;1830) ns3::TcpOptionEnd(EOL)) Payload (size=512)
r 1.85094 /NodeList/0/DeviceList/0/$ns3::PointToPointNetDevice/MacRx ns3::PppHeader (Point-to-Point Protocol: IP (0x0021)) ns3::Ipv4Header (tos 0x0 DSCP Default ECN Not-ECT ttl 63 id 3 protocol 6 offset (bytes) 0 flags [none] length: 52 10.1.0.7 > 10.1.0.1) ns3::TcpHeader (9 > 49153 [ACK] Seq=1 Ack=2561 Win=32768 ns3::TcpOptionTS(1846;1832) ns3::TcpOptionEnd(EOL))
r 1.85206 /NodeList/1/DeviceList/0/$ns3::PointToPointNetDevice/MacRx ns3::PppHeader (Point-to-Point Protocol: IP (0x0021)) ns3::Ipv4Header (tos 0x0 DSCP Default ECN Not-ECT ttl 64 id 7 protocol 6 offset (bytes) 0 flags [none] length: 564 10.1.0.1 > 10.1.0.7) ns3::TcpHeader (49153 > 9 [ACK] Seq=2561 Ack=1 Win=32768 ns3::TcpOptionTS(1849;1830) ns3::TcpOptionEnd(EOL)) Payload (size=512)
+ 1.85206 /NodeList/1/DeviceList/1/$ns3::PointToPointNetDevice/TxQueue/Enqueue ns3::PppHeader (Point-to-Point Protocol: IP (0x0021)) ns3::Ipv4Header (tos 0x0 DSCP Default ECN Not-ECT ttl 63 id 7 protocol 6 offset (bytes) 0 flags [none] length: 564 10.1.0.1 > 10.1.0.7) ns3::TcpHeader (49153 > 9 [ACK] Seq=2561 Ack=1 Win=32768 ns3::TcpOptionTS(1849;1830) ns3::TcpOptionEnd(EOL)) Payload (size=512)
- 1.85206 /NodeList/1/DeviceList/1/$ns3::PointToPointNetDevice/TxQueue/Dequeue ns3::PppHeader (Point-to-Point Protocol: IP (0x0021)) ns3::Ipv4Header (tos 0x0 DSCP Default ECN Not-ECT ttl 63 id 7 protocol 6 offset (bytes) 0 flags [none] length: 564 10.1.0.1 > 10.1.0.7) ns3::TcpHeader (49153 > 9 [ACK] Seq=2561 Ack=1 Win=32768 ns3::TcpOptionTS(1849;1830) ns3::TcpOptionEnd(EOL)) Payload (size=512)
r 1.85496 /NodeList/3/DeviceList/0/$ns3::PointToPointNetDevice/MacRx ns3::PppHeader (Point-to-Point Protocol: IP (0x0021)) ns3::Ipv4Header (tos 0x0 DSCP Default ECN Not-ECT ttl 63 id 7 protocol 6 offset (bytes) 0 flags [none] length: 564 10.1.0.1 > 10.1.0.7) ns3::TcpHeader (49153 > 9 [ACK] Seq=2561 Ack=1 Win=32768 ns3::TcpOptionTS(1849;1830) ns3::TcpOptionEnd(EOL)) Payload (size=512)
+ 1.85734 /NodeList/0/DeviceList/0/$ns3::PointToPointNetDevice/TxQueue/Enqueue ns3::PppHeader (Point-to-Point Protocol: IP (0x0021)) ns3::Ipv4Header (tos 0x0 DSCP Default ECN Not-ECT ttl 64 id 8 protocol 6 offset (bytes) 0 flags [none] length: 564 10.1.0.1 > 10.1.0.7) ns3::TcpHeader (49153 > 9 [ACK] Seq=3073 Ack=1 Win=32768 ns3::TcpOptionTS(1857;1846) ns3::TcpOptionEnd(EOL)) Payload (size=512)
- 1.85734 /NodeList/0/DeviceList/0/$ns3::PointToPointNetDevice/TxQueue/Dequeue ns3::PppHeader (Point-to-Point Protocol: IP (0x0021)) ns3::Ipv4Header (tos 0x0 DSCP Default ECN Not-ECT ttl 64 id 8 protocol 6 offset (bytes) 0 flags [none] length: 564 10.1.0.1 > 10.1.0.7) ns3::TcpHeader (49153 > 9 [ACK] Seq=3073 Ack=1 Win=32768 ns3::TcpOptionTS(1857;1846) ns3::TcpOptionEnd(EOL)) Payload (size=512)
r 1.86025 /NodeList/1/DeviceList/0/$ns3::PointToPointNetDevice/MacRx ns3::PppHeader (Point-to-Point Protocol: IP (0x0021)) ns3::Ipv4Header (tos 0x0 DSCP Default ECN Not-ECT ttl 64 id 8 protocol 6 offset (bytes) 0 flags [none] length: 564 10.1.0.1 > 10.1.0.7) ns3::TcpHeader (49153 > 9 [ACK] Seq=3073 Ack=1 Win=32768 ns3::TcpOptionTS(1857;1846) ns3::TcpOptionEnd(EOL)) Payload (size=512)
+ 1.86025 /NodeList/1/DeviceList/1/$ns3::PointToPointNetDevice/TxQueue/Enqueue ns3::PppHeader (Point-to-Point Protocol: IP (0x0021)) ns3::Ipv4Header (tos 0x0 DSCP Default ECN Not-ECT ttl 63 id 8 protocol 6 offset (bytes) 0 flags [none] length: 564 10.1.0.1 > 10.1.0.7) ns3::TcpHeader (49153 > 9 [ACK] Seq=3073 Ack=1 Win=32768 ns3::TcpOptionTS(1857;1846) ns3::TcpOptionEnd(EOL)) Payload (size=512)